#     Step Nr.          Time[fs]        Kin.[a.u.]          Temp[K]            Pot.[a.u.]        Cons Qty[a.u.]        UsedTime[s]
         0            0.000000         0.014155665       298.000000000         0.040516273         0.055143793         0.000000000
         1            0.500000         0.013575499       285.786560266         0.041103080         0.055152951         0.016646281
         2            1.000000         0.012812999       269.734682020         0.041876585         0.055166350         0.003094222
         3            1.500000         0.012074885       254.196168579         0.042626967         0.055180876         0.003079973
         4            2.000000         0.011585029       243.883898061         0.043126733         0.055192932         0.003168676
         5            2.500000         0.011529011       242.704636126         0.043187134         0.055199410         0.016083553
         6            3.000000         0.012006309       252.752532876         0.042706854         0.055198561         0.003387563
         7            3.500000         0.013003328       273.741425245         0.041699481         0.055190472         0.003077671
         8            4.000000         0.014394777       303.033706898         0.040292127         0.055177048         0.003114197
         9            4.500000         0.015972986       336.257604248         0.038695597         0.055161478         0.022574838
        10            5.000000         0.017497068       368.342041616         0.037154369         0.055147364         0.003092963
