      12
 i =        0, time =        0.000, E =         0.0405162729
  C         0.0147568910        0.0039544901       -0.0012499630
  H         0.0000037745       -0.0004789372        0.0000138793
  H         0.0002081815       -0.0001962902        0.0004646456
  C         0.0150762339        0.0027451382       -0.0003309940
  H        -0.0000065624        0.0003967155       -0.0001005654
  H        -0.0000877258        0.0002364037       -0.0002067653
  C        -0.0313853143        0.0635056546       -0.0345023081
  H        -0.0000727349       -0.0004891879        0.0000181850
  H         0.0001335092       -0.0002161583        0.0004739979
  C         0.0016191267       -0.0700607314        0.0357135326
  H        -0.0000834287        0.0003863310       -0.0000962061
  H        -0.0001619507        0.0002165719       -0.0001974387
      12
 i =        5, time =        2.500, E =         0.0431871337
  C         0.0248677923       -0.0216734433        0.0134968502
  H         0.0030775753        0.0126116796        0.0061202998
  H        -0.0115236691        0.0030739549       -0.0204586668
  C         0.0150886731        0.0060665814        0.0130207440
  H        -0.0005915485        0.0011055031       -0.0068083528
  H        -0.0024980393        0.0052351013       -0.0067665814
  C        -0.0318446464        0.0870881825       -0.0377079887
  H         0.0018008470       -0.0109277319        0.0024713056
  H        -0.0009058782       -0.0124857555        0.0017856984
  C         0.0004182382       -0.0718669309        0.0285465061
  H        -0.0030049971       -0.0017780338       -0.0069803076
  H         0.0051156527        0.0035508925        0.0132804932
      12
 i =       10, time =        5.000, E =         0.0371543687
  C         0.0209348367       -0.0188403112       -0.0000004033
  H         0.0016343973        0.0044082131        0.0035290743
  H        -0.0060486390        0.0048252604       -0.0057114132
  C         0.0080971622        0.0038252859        0.0109741941
  H         0.0010219161        0.0045882250       -0.0084188388
  H         0.0007050258        0.0072858691       -0.0017524476
  C        -0.0197236085        0.0428461140       -0.0162898871
  H         0.0040880290       -0.0008299401        0.0064358123
  H        -0.0050764777       -0.0143672897       -0.0042443238
  C        -0.0039027129       -0.0306208641        0.0143990675
  H        -0.0035441257       -0.0045157255       -0.0085407624
  H         0.0018141966        0.0013951631        0.0096199281
