      12
 i =        0, time =        0.000, E =         0.0405162729
  C         0.0000641491       -0.0000477955       -0.0000337553
  H        -0.0002927766       -0.0003964470       -0.0005721655
  H         0.0012910282       -0.0009140652        0.0005564268
  C         0.0003155784       -0.0001120153        0.0001115374
  H         0.0003867972       -0.0004196619        0.0009890673
  H        -0.0000242748       -0.0004102468        0.0006494681
  C        -0.0003285850       -0.0001910053       -0.0000863987
  H        -0.0007876363        0.0006781113       -0.0005328464
  H        -0.0001625459        0.0013840156       -0.0003472861
  C        -0.0001219863        0.0003470699       -0.0000703308
  H         0.0004548299       -0.0001696776        0.0009074850
  H        -0.0000213399        0.0002926052       -0.0007095163
      12
 i =        5, time =        2.500, E =         0.0431871337
  C         0.0001623330       -0.0000971356        0.0000031218
  H        -0.0001908846        0.0000084333       -0.0003699620
  H         0.0009053492       -0.0008220182       -0.0001248495
  C         0.0003891080       -0.0000892791        0.0001456846
  H         0.0003607055       -0.0003911167        0.0007778901
  H        -0.0001193171       -0.0002487773        0.0004134142
  C        -0.0004827234        0.0001897172       -0.0002669599
  H        -0.0007436055        0.0002716516       -0.0004732207
  H        -0.0001642537        0.0009898244       -0.0002426392
  C        -0.0001146777       -0.0000068226        0.0000867266
  H         0.0003623596       -0.0001860014        0.0006942850
  H         0.0001372451        0.0004199440       -0.0003004754
      12
 i =       10, time =        5.000, E =         0.0371543687
  C         0.0002749611       -0.0002040798        0.0000452468
  H        -0.0000387814        0.0005899402       -0.0000601008
  H         0.0003430842       -0.0005965748       -0.0010177895
  C         0.0004457617       -0.0000644262        0.0002082521
  H         0.0003641342       -0.0002359819        0.0003238097
  H        -0.0001906482        0.0001210800        0.0001240105
  C        -0.0006081014        0.0005181353       -0.0004016521
  H        -0.0005732393       -0.0001326527       -0.0002184063
  H        -0.0003296565        0.0001841322       -0.0002982972
  C        -0.0001225813       -0.0002606656        0.0001887421
  H         0.0001632892       -0.0003830203        0.0002254781
  H         0.0003804867        0.0005845717        0.0004376922
