      12
 i =        0, time =        0.000, E =         0.0405162729
  C         0.0950000000        0.1810000000       -0.2170000000
  H         0.3480000000        1.1260000000        0.2580000000
  H        -0.3910000000        0.1850000000       -1.1900000000
  C         0.3780000000       -0.9650000000        0.3830000000
  H         0.1260000000       -1.9100000000       -0.0920000000
  H         0.8650000000       -0.9690000000        1.3550000000
  C         3.6220000000        0.9650000000       -0.3830000000
  H         3.8750000000        1.9100000000        0.0920000000
  H         3.1360000000        0.9690000000       -1.3560000000
  C         3.9050000000       -0.1810000000        0.2170000000
  H         3.6530000000       -1.1260000000       -0.2580000000
  H         4.3920000000       -0.1850000000        1.1890000000
      12
 i =        5, time =        2.500, E =         0.0431871337
  C         0.1009548194        0.1776421803       -0.2181904909
  H         0.3339029097        1.1116695862        0.2305103027
  H        -0.3276296126        0.1366215645       -1.1722547503
  C         0.3972685987       -0.9705838539        0.3897187366
  H         0.1466092159       -1.9323570669       -0.0418056844
  H         0.8617601518       -0.9884166428        1.3859294549
  C         3.5998248608        0.9644082901       -0.3925879748
  H         3.8326106849        1.9389279235        0.0638187056
  H         3.1273471428        1.0373411836       -1.3725091614
  C         3.8985584508       -0.1716540982        0.2176206132
  H         3.6761654227       -1.1351063828       -0.2122738962
  H         4.3936638242       -0.1664463820        1.1575610025
      12
 i =       10, time =        5.000, E =         0.0371543687
  C         0.1130082568        0.1693344722       -0.2165467257
  H         0.3280362354        1.1303516095        0.2194910322
  H        -0.2950606011        0.0973464035       -1.2076894605
  C         0.4202638258       -0.9747323099        0.3994479105
  H         0.1659777237       -1.9504923395       -0.0112372969
  H         0.8523758026       -0.9924788684        1.3992013736
  C         3.5697107596        0.9848080735       -0.4113748062
  H         3.7959516440        1.9398513612        0.0437777907
  H         3.1150220282        1.0699541412       -1.3855801149
  C         3.8921710930       -0.1799374959        0.2254833780
  H         3.6906912519       -1.1498742917       -0.1866842590
  H         4.4087452383       -0.1383758791        1.1623487353
