      12
 i =        0, time =        0.000, E =         0.0405162729
  C         0.0147568910        0.0039544901       -0.0012499630
  H         0.0000037745       -0.0004789372        0.0000138793
  H         0.0002081815       -0.0001962902        0.0004646456
  C         0.0150762339        0.0027451382       -0.0003309940
  H        -0.0000065624        0.0003967155       -0.0001005654
  H        -0.0000877258        0.0002364037       -0.0002067653
  C        -0.0313853143        0.0635056546       -0.0345023081
  H        -0.0000727349       -0.0004891879        0.0000181850
  H         0.0001335092       -0.0002161583        0.0004739979
  C         0.0016191267       -0.0700607314        0.0357135326
  H        -0.0000834287        0.0003863310       -0.0000962061
  H        -0.0001619507        0.0002165719       -0.0001974387
      12
 i =        5, time =        2.500, E =         0.0457668039
  C         0.0068841503       -0.0098503307       -0.0130954523
  H        -0.0009014001        0.0030595140        0.0020914331
  H         0.0100454512        0.0007051612        0.0151265913
  C         0.0219898751        0.0080022747        0.0115464130
  H        -0.0034508952        0.0014128747       -0.0015878390
  H        -0.0058770261        0.0032600433       -0.0154496792
  C        -0.0498187156        0.0596322098       -0.0654673145
  H         0.0083769229        0.0205893796        0.0138995039
  H         0.0096159846       -0.0059260398        0.0175218113
  C         0.0148585406       -0.0687215867        0.0583539422
  H        -0.0007525517       -0.0131851056       -0.0023810967
  H        -0.0109703360        0.0010216054       -0.0205583130
      12
 i =       10, time =        5.000, E =         0.0383456339
  C         0.0138141329       -0.0152821432        0.0047066731
  H        -0.0027427219        0.0009308797        0.0009345998
  H         0.0065546200        0.0004765897        0.0046506349
  C         0.0138906610        0.0118283372       -0.0053905681
  H        -0.0046584005        0.0035690104       -0.0003787180
  H         0.0000571269        0.0048609004       -0.0058225719
  C        -0.0277294575        0.0423577843       -0.0182854932
  H         0.0055269758        0.0116455323        0.0060353343
  H         0.0004183131       -0.0055067947       -0.0011164781
  C        -0.0056662765       -0.0396250495        0.0129817694
  H         0.0030922228       -0.0141676542        0.0045136972
  H        -0.0025571961       -0.0010873924       -0.0028288794
