      12
 i =        0, time =        0.000, E =         0.0405162729
  C         0.0001548678       -0.0001245768       -0.0000723694
  H         0.0002327071       -0.0001986979       -0.0003158311
  H        -0.0003985159       -0.0003725779       -0.0006560818
  C         0.0002426116       -0.0002222531        0.0001194493
  H         0.0011093400       -0.0004226065        0.0001907465
  H         0.0002879159       -0.0003960272        0.0009209062
  C        -0.0001422861       -0.0000748205        0.0001466761
  H        -0.0011365993       -0.0006980131       -0.0004993775
  H        -0.0008983694        0.0007128242       -0.0006163658
  C        -0.0001827484        0.0004502352       -0.0001450046
  H        -0.0004162726        0.0011780393       -0.0004433551
  H         0.0003566350       -0.0001435202        0.0008385006
      12
 i =        5, time =        2.500, E =         0.0457668039
  C         0.0002019234       -0.0001399731       -0.0001147637
  H         0.0002104347       -0.0001104949       -0.0002464440
  H        -0.0000679741       -0.0003569597       -0.0001332466
  C         0.0003348265       -0.0001963652        0.0001545564
  H         0.0010037308       -0.0003802518        0.0001321154
  H         0.0000773061       -0.0002940688        0.0003958886
  C        -0.0003473529        0.0002256646       -0.0001153270
  H        -0.0008617959       -0.0000506954       -0.0000394187
  H        -0.0005541295        0.0005186538        0.0000323413
  C        -0.0001330042        0.0001083698        0.0000996365
  H        -0.0004528735        0.0007958091       -0.0005401893
  H        -0.0000266022       -0.0000945420        0.0001117825
      12
 i =       10, time =        5.000, E =         0.0383456339
  C         0.0002454098       -0.0002035518       -0.0001449669
  H         0.0001107266        0.0000290454       -0.0001475003
  H         0.0004601815       -0.0003158670        0.0005329511
  C         0.0004245413       -0.0001490534        0.0001789428
  H         0.0007655844       -0.0002384223        0.0000672202
  H        -0.0001337817       -0.0000572192       -0.0003102300
  C        -0.0005439849        0.0004684182       -0.0003390049
  H        -0.0004216261        0.0010045665        0.0006256727
  H        -0.0001999841        0.0001686971        0.0006233457
  C        -0.0000998097       -0.0001539990        0.0002905347
  H        -0.0004083553       -0.0000479226       -0.0005238455
  H        -0.0004843911       -0.0000879039       -0.0006949194
