#     Step Nr.          Time[fs]        Kin.[a.u.]          Temp[K]            Pot.[a.u.]        Cons Qty[a.u.]        UsedTime[s]
         0            0.000000         0.014155665       298.000000000         0.040516273         0.054671937         0.000000000
         1            0.500000         0.013120160       276.200926640         0.041564374         0.054684534         0.005398460
         2            1.000000         0.011742852       247.206333485         0.042963159         0.054706011         0.003135011
         3            1.500000         0.010355505       218.000389038         0.044374961         0.054730465         0.003078505
         4            2.000000         0.009334950       196.516033643         0.045415857         0.054750807         0.003078088
         5            2.500000         0.008994139       189.341406158         0.045766804         0.054760943         0.003068872
         6            3.000000         0.009488594       199.750498244         0.045269087         0.054757681         0.003386442
         7            3.500000         0.010767468       226.672902725         0.043974284         0.054741752         0.003094293
         8            4.000000         0.012584910       264.933039446         0.042132715         0.054717625         0.003080394
         9            4.500000         0.014568899       306.699258160         0.040123273         0.054692172         0.003218122
        10            5.000000         0.016326943       343.708985246         0.038345634         0.054672577         0.003073130
